% Model:              pMPEX_28GHz_3D_reflector_v3.3.mph
% Version:            COMSOL 5.3.1.275
% Date:               Aug 22 2018, 10:22
% Dimension:          3
% Nodes:              11492
% Expressions:        4
% Description:        , Power flow, time average, x component, Power flow, time average, y component, Power flow, time average, z component
% Length unit:        m
% X                       Y                        Z                        if(emw.normE>100, kperp_angle, NaN) (rad) @ axial_target_offset=2, phi=0 emw.Poavx (W/m^2) @ axial_target_offset=2, phi=0 emw.Poavy (W/m^2) @ axial_target_offset=2, phi=0 emw.Poavz (W/m^2) @ axial_target_offset=2, phi=0
-0.057839282736587935     0.125                    -0.14604999999999987     NaN                      -1.2568343195831653E-6   1.1645380977165525E-5    -1.4643537902238093E-5
-0.05783928273658798      0.125                    -0.14436683724463567     NaN                      -9.152915392974361E-7    9.113363331469012E-6     -9.699804057303994E-6
-0.05949431024999988      0.125                    -0.14604999999999985     NaN                      1.4079528138057582E-20   9.491210210976861E-6     -1.2052433976148026E-5
-0.05949431024999988      0.125                    -0.14436683724463567     NaN                      2.4027587048477734E-20   7.277060938788851E-6     -9.971924253852235E-6
-0.059494310249999904     0.125                    -0.1419666666666665      NaN                      1.3784742397343265E-20   3.6441993728072703E-6    -6.710983808154793E-6
-0.05783928273658799      0.125                    -0.1419666666666665      NaN                      -6.570320923269851E-7    5.664153436188539E-6     -6.400261748926546E-6
-0.05547923268749989      0.125                    -0.14196666666666652     NaN                      6.655016029408527E-7     7.849377674373253E-6     -6.16256273819277E-6
-0.05547923268749989      0.125                    -0.14436683724463567     NaN                      7.503165396294248E-7     1.196949117040292E-5     -1.3607669120074966E-5
-0.05547923268749989      0.125                    -0.14604999999999987     NaN                      5.204651080898059E-7     1.4458863467485736E-5    -1.8463590653573587E-5
-0.05382420517408794      0.125                    -0.14604999999999987     NaN                      -1.706393073977017E-5    3.021042400489578E-5     -3.702340529538019E-5
-0.05382420517408799      0.125                    -0.14436683724463567     NaN                      -1.590900790536641E-5    2.4139608257242622E-5    -2.3030360420867503E-5
-0.05382420517408797      0.125                    -0.14196666666666652     NaN                      -1.5136078742844394E-5   2.0170435943857258E-5    -1.5692562838482718E-5
-0.0514641551249999       0.125                    -0.14196666666666655     NaN                      -2.8088157851788382E-5   3.729917064787304E-5     -2.5740705528293015E-5
-0.05146415512499988      0.125                    -0.14436683724463567     NaN                      -2.3314735825576852E-5   4.463856061490738E-5     -5.209571451531309E-5
-0.05146415512499988      0.125                    -0.14604999999999987     NaN                      -2.4080154961171763E-5   5.058281389074809E-5     -6.610041689115652E-5
-0.04579405004908789      0.125                    -0.14604999999999985     NaN                      -5.805080339584373E-4    4.4331218816782525E-4    -7.226164131209894E-4
-0.0457940500490879       0.125                    -0.14436683724463556     NaN                      -5.432374070252049E-4    2.958862559906355E-4     -6.51122221876126E-4
-0.04744907756249987      0.125                    -0.14604999999999987     NaN                      -2.234328230267047E-4    2.280757441390252E-4     -3.3368661202959256E-4
-0.047449077562499886     0.125                    -0.14436683724463556     NaN                      -2.1020209252523204E-4   1.9434859213278088E-4    -3.004039012557382E-4
-0.04744907756249989      0.125                    -0.14196666666666652     NaN                      -2.2767432665468036E-4   1.566304658586884E-4     -2.1925806391924382E-4
-0.04579405004908797      0.125                    -0.14196666666666655     NaN                      -5.563306317333293E-4    2.3850417091131394E-4    -5.718077147713577E-4
-0.043433999999999896     0.125                    -0.14196666666666657     NaN                      -0.0011866836260637755   5.398273867023934E-4     -0.0011869973678355883
-0.043433999999999875     0.125                    -0.14436683724463567     NaN                      -0.0011692250645686773   7.494748815806276E-4     -0.0013790535648600661
-0.04343399999999987      0.125                    -0.14604999999999985     NaN                      -0.0012064956915019077   8.969008137578096E-4     -0.0014505477561049258
-0.049809127611588025     0.125                    -0.1460499999999999      NaN                      -1.0997226042056864E-4   1.1480029940290667E-4    -1.5703614024786326E-4
-0.04980912761158798      0.125                    -0.14436683724463567     NaN                      -9.687338394647548E-5    8.074149397262316E-5     -1.2325136403953807E-4
-0.049809127611587976     0.125                    -0.14196666666666652     NaN                      -9.855338161383242E-5    7.010894400593123E-5     -9.693103319684238E-5
-0.05783928273658794      0.125                    -0.1402835039113022      NaN                      -8.64187744691223E-7     6.885531697990966E-6     -8.046479283675604E-6
-0.059494310249999904     0.125                    -0.14028350391130218     NaN                      6.931581951037554E-22    2.698801197033312E-6     -7.342232206468521E-6
-0.059494310249999904     0.125                    -0.13788333333333314     NaN                      -2.1675736210675973E-22  4.884174251106499E-7     -5.7022700976466706E-6
-0.05783928273658794      0.125                    -0.13788333333333316     NaN                      -1.1457152575485733E-6   5.257898737187628E-6     -6.44099150462244E-6
-0.05547923268749989      0.125                    -0.13788333333333314     NaN                      5.104674278998224E-7     6.5514363557631686E-6    -3.350020161659874E-6
-0.05547923268749989      0.125                    -0.14028350391130218     NaN                      7.456309899474253E-7     8.739780655428537E-6     -7.797926131551657E-6
-0.04579405004908795      0.125                    -0.14028350391130226     NaN                      -4.983041351094878E-4    1.1910527416228392E-4    -6.283117788469992E-4
-0.04744907756249989      0.125                    -0.14028350391130223     NaN                      -2.0307761255484611E-4   1.3187728927697764E-4    -2.374028648313934E-4
-0.04744907756249989      0.125                    -0.13788333333333314     NaN                      -1.9665715794597256E-4   9.826756995770328E-5     -1.96826028195551E-4
-0.04579405004908795      0.125                    -0.13788333333333314     NaN                      -4.948528605727266E-4    7.285950780333228E-5     -5.910983027662179E-4
-0.043433999999999896     0.125                    -0.13788333333333314     NaN                      -9.977193882762527E-4    1.8159895097274786E-4    -0.001095864654188049
-0.043433999999999896     0.125                    -0.14028350391130226     NaN                      -0.0011193629959432975   3.8804249475022E-4       -0.0012374089035440804
-0.05783928273658794      0.125                    -0.1362001705779688      NaN                      -3.645153256662E-6       7.761008818407195E-6     -1.2123634037200062E-5
-0.05949431024999989      0.125                    -0.1362001705779688      NaN                      4.564992701226131E-22    4.5567126985494757E-7    -7.917532236062291E-6
-0.05949431024999989      0.125                    -0.13379999999999992     NaN                      1.0162183668365366E-20   2.2399707190892145E-7    -1.0576767231144151E-5
-0.05783928273658794      0.125                    -0.13379999999999992     NaN                      -4.188687999268325E-6    7.927038751973595E-6     -1.4791207490155336E-5
-0.05547923268749989      0.125                    -0.1337999999999999      NaN                      -6.033864046779233E-6    1.2622319547940241E-5    -1.4890738622355061E-5
-0.05547923268749989      0.125                    -0.13620017057796874     NaN                      -2.0618992686417973E-6   9.206120314842415E-6     -9.164564643127118E-6
-0.04579405004908795      0.125                    -0.13620017057796877     NaN                      -5.553252828806342E-4    2.8371241751963232E-5    -6.888646738698385E-4
-0.04744907756249989      0.125                    -0.13620017057796877     NaN                      -1.9703043079971817E-4   8.87600396670735E-5      -2.283223881634411E-4
-0.04744907756249989      0.125                    -0.1337999999999999      NaN                      -2.0912646060058118E-4   1.043329296368902E-4     -2.5990243135242134E-4
-0.045794050049087986     0.125                    -0.13379999999999992     NaN                      -5.756424360660056E-4    3.736165621069419E-5     -7.217209534804891E-4
-0.043433999999999896     0.125                    -0.13379999999999992     NaN                      -0.001000111006640742    1.0720919874666893E-4    -0.0011888924057846665
-0.043433999999999896     0.125                    -0.13620017057796877     NaN                      -0.0010421342402459973   1.1751740727200549E-4    -0.0011902819370156073
-0.05783928273658794      0.125                    -0.13211683724463585     NaN                      -6.17530361058758E-6     7.503234124809102E-6     -1.6390671205836385E-5
-0.05949431024999989      0.125                    -0.13211683724463585     NaN                      1.5243400346586463E-20   5.782344146907828E-9     -1.0621762601456893E-5
-0.059494310249999904     0.125                    -0.12971666666666679     NaN                      -7.2156667788748845E-22  -8.209978565774312E-8    -1.3342982641646678E-5
-0.05783928273658785      0.125                    -0.12971666666666679     NaN                      -6.346911448470814E-6    7.152720195585156E-6     -1.907879235038229E-5
-0.055479232687499894     0.125                    -0.12971666666666679     NaN                      -1.4706030333526128E-5   1.6637284053030524E-5    -2.5496849186741712E-5
-0.05547923268749989      0.125                    -0.13211683724463585     NaN                      -8.764527066024015E-6    1.3047516681178067E-5    -1.6749015280350175E-5
-0.04579405004908795      0.125                    -0.1321168372446358      NaN                      -6.919325889311772E-4    2.0902641995320035E-5    -7.426183907487352E-4
-0.04744907756249989      0.125                    -0.1321168372446358      NaN                      -2.163746927388009E-4    9.716162784042354E-5     -2.614336545887982E-4
-0.04744907756249989      0.125                    -0.12971666666666676     NaN                      -2.2987494598996974E-4   1.105628185218452E-4     -3.060021750559505E-4
-0.04579405004908786      0.125                    -0.12971666666666676     NaN                      -7.18195615292454E-4     4.7098376041529724E-5    -7.855313123014205E-4
-0.043433999999999896     0.125                    -0.12971666666666676     NaN                      -0.0011703894348129764   1.8228072150888638E-4    -0.0012705391161125766
-0.043433999999999896     0.125                    -0.1321168372446358      NaN                      -0.0011023071977280417   8.705330359960406E-5     -0.0012122716944230993
-0.05783928273658788      0.125                    -0.12803350391130233     NaN                      -5.723605048420682E-6    4.224735035056789E-6     -1.649394688965748E-5
-0.059494310249999904     0.125                    -0.12803350391130233     NaN                      -6.800948088286896E-21   -1.9907740226981917E-7   -1.1644383416475136E-5
-0.059494310249999904     0.125                    -0.1256333333333334      NaN                      1.6241484778316256E-21   -1.3380628951337047E-6   -9.441312514548109E-6
-0.057839282736588005     0.125                    -0.12563333333333343     NaN                      -5.613665423570793E-6    2.700277088982518E-6     -1.429282907136454E-5
-0.055479232687499894     0.125                    -0.12563333333333337     NaN                      -1.6988433815750427E-5   1.3047032527512206E-5    -2.3233860697504024E-5
-0.055479232687499894     0.125                    -0.12803350391130233     NaN                      -1.4743796769541423E-5   1.4264255444081975E-5    -2.301592517586958E-5
-0.04579405004908789      0.125                    -0.12803350391130236     NaN                      -8.202430912562338E-4    1.503380454814982E-4     -7.628418072542492E-4
-0.04744907756249989      0.125                    -0.12803350391130236     NaN                      -2.460776881057478E-4    1.3631668508416533E-4    -3.0396860035037917E-4
-0.04744907756249989      0.125                    -0.12563333333333337     NaN                      -2.4019831390163513E-4   1.519879353103672E-4     -3.2339893615669104E-4
-0.04579405004908795      0.125                    -0.12563333333333337     NaN                      -8.199544529045781E-4    1.9885430503382574E-4    -7.805808344166745E-4
-0.043433999999999896     0.125                    -0.12563333333333337     NaN                      -0.0013219472423704392   5.032713329838297E-4     -0.0013659457173885562
-0.043433999999999896     0.125                    -0.12803350391130236     NaN                      -0.001273273029517321    2.987709469445707E-4     -0.001252184972195529
-0.057839282736588046     0.125                    -0.12395017057796917     NaN                      -3.4030904233317343E-6   2.380144065675257E-6     -1.3754492770261482E-5
-0.059494310249999904     0.125                    -0.12395017057796917     NaN                      4.354886245307294E-21    2.547914529143854E-7     -9.455582829174622E-6
-0.05949431024999991      0.125                    -0.12154999999999991     NaN                      -7.696131018338768E-21   1.9919570894288545E-7    -5.261216504543648E-6
-0.05783928273658799      0.125                    -0.12154999999999991     NaN                      -3.2675070849567783E-6   2.1416174129524886E-6    -9.538709755332414E-6
-0.0554792326874999       0.125                    -0.12154999999999991     NaN                      -1.1166057541628995E-5   8.567957671252952E-6     -1.736643088846109E-5
-0.055479232687499894     0.125                    -0.12395017057796914     NaN                      -1.4635731204146464E-5   1.2479192888553593E-5    -2.2554611783738145E-5
-0.04579405004908797      0.125                    -0.12395017057796905     NaN                      -9.061844784176047E-4    3.4903656625530924E-4    -7.784678245752434E-4
-0.04744907756249989      0.125                    -0.12395017057796905     NaN                      -2.5431623433580476E-4   1.9058995256118717E-4    -3.39936230588656E-4
-0.0474490775624999       0.125                    -0.12154999999999988     NaN                      -2.2639747005724303E-4   2.1268406669300917E-4    -3.7016520899165866E-4
-0.04579405004908797      0.125                    -0.12154999999999988     NaN                      -8.74568029998232E-4     4.02674802510243E-4      -8.117513807690659E-4
-0.043433999999999896     0.125                    -0.12154999999999985     NaN                      -0.0013741397203477761   8.974054302214331E-4     -0.0015796671115373875
-0.043433999999999896     0.125                    -0.123950170577969       NaN                      -0.001413616082557364    6.818401186166319E-4     -0.0013614378756601517
-0.05783928273658796      0.125                    -0.1198668372446357      NaN                      -1.4359092400764944E-6   4.218586825781845E-6     -1.065251971400505E-5
-0.059494310249999904     0.125                    -0.1198668372446357      NaN                      -2.2355058143204518E-20  2.722758751110225E-6     -6.76969405379858E-6
-0.059494310249999904     0.125                    -0.11746666666666665     NaN                      5.541466237786952E-21    6.485200600850376E-6     -7.352814164055694E-6
-0.05783928273658802      0.125                    -0.11746666666666664     NaN                      -1.1624917438588943E-6   7.844353719894075E-6     -1.1084373773258347E-5
-0.05547923268749991      0.125                    -0.11746666666666662     NaN                      -4.089624119953901E-6    1.1560423304540306E-5    -1.762147781481278E-5
-0.05547923268749991      0.125                    -0.1198668372446357      NaN                      -8.783272085595713E-6    1.0094983962159534E-5    -1.8265002589352288E-5
-0.04579405004908797      0.125                    -0.11986683724463568     NaN                      -9.163472628708717E-4    3.968862436612127E-4     -8.078911061954171E-4
-0.0474490775624999       0.125                    -0.11986683724463565     NaN                      -2.2729497948943488E-4   2.060942900848333E-4     -3.6008477271725275E-4
-0.04744907756249989      0.125                    -0.11746666666666661     NaN                      -1.8879897456646334E-4   2.0547941318919206E-4    -3.743495936219789E-4
-0.045794050049088014     0.125                    -0.11746666666666661     NaN                      -8.634197243763047E-4    4.0215989181669517E-4    -8.236878982137357E-4
-0.043433999999999896     0.125                    -0.11746666666666661     NaN                      -0.0012951402065364411   8.821867264477016E-4     -0.0016782244497438432
-0.043433999999999896     0.125                    -0.11986683724463565     NaN                      -0.0014175204487975356   9.245885394292334E-4     -0.0015656804818729346
-0.05783928273658803      0.125                    -0.11578350391130249     NaN                      1.4253597442834526E-7    5.896072000115936E-6     -8.510801504090143E-6
-0.059494310249999904     0.125                    -0.11578350391130249     NaN                      -1.1873854278513831E-20  5.788358124456366E-6     -6.633479750217037E-6
-0.059494310249999904     0.125                    -0.11338333333333345     NaN                      -5.806330562320974E-20   8.496621175224429E-6     -9.136666876211745E-6
-0.05783928273658802      0.125                    -0.11338333333333345     NaN                      4.1139568784758925E-7    8.494912694636743E-6     -1.0901838333256794E-5
-0.055479232687499894     0.125                    -0.11338333333333345     NaN                      9.98793082254727E-9      1.0799486086502598E-5    -1.5753792291078827E-5
-0.055479232687499894     0.125                    -0.11578350391130249     NaN                      -2.4435825876515524E-6   9.346692420422938E-6     -1.4877200544952896E-5
-0.04579405004908799      0.125                    -0.11578350391130245     NaN                      -7.952608320347115E-4    3.560197037580769E-4     -8.320963458038242E-4
-0.04744907756249989      0.125                    -0.11578350391130243     NaN                      -1.6232798551802096E-4   1.5914402185444114E-4    -3.242111148306041E-4
-0.04744907756249989      0.125                    -0.11338333333333339     NaN                      -1.4393878459049525E-4   9.913201431877305E-5     -2.519943271016201E-4
-0.04579405004908799      0.125                    -0.1133833333333334      NaN                      -7.585619274390605E-4    2.9453131496378444E-4    -7.484446389587035E-4
-0.043433999999999896     0.125                    -0.11338333333333339     NaN                      -0.0011976061333831716   5.644459344297254E-4     -0.0014086114938378236
-0.043433999999999896     0.125                    -0.11578350391130243     NaN                      -0.001220625081548531    8.374491620064138E-4     -0.0016693167884045867
-0.05783928273658806      0.125                    -0.11170017057796922     NaN                      2.4460207291294376E-7    5.475004594746633E-6     -8.058900000692693E-6
-0.059494310249999925     0.125                    -0.11170017057796922     NaN                      9.243385528751271E-20    5.81015241630638E-6      -7.653053557165063E-6
-0.05949431024999997      0.125                    -0.10929999999999997     NaN                      8.313165764765652E-20    2.2635562830438036E-6    -6.286708525412703E-6
-0.0578392827365881       0.125                    -0.10929999999999998     NaN                      2.4460207291293445E-7    1.9284084614840557E-6    -6.692554968940333E-6
-0.05547923268749996      0.125                    -0.10929999999999998     NaN                      9.748777354613481E-7     2.3147015380992743E-6    -8.315528605859931E-6
-0.05547923268749992      0.125                    -0.11170017057796919     NaN                      9.677986724757474E-8     7.61431585423804E-6      -1.2666221903412178E-5
-0.05382420517408799      0.125                    -0.11338333333333343     NaN                      -7.197625282397099E-6    1.2093066087427344E-5    -2.6855240156765943E-5
-0.05382420517408805      0.125                    -0.1117001705779692      NaN                      -4.194702863677253E-6    7.69169231194422E-6      -1.8525948591876574E-5
-0.05382420517408812      0.125                    -0.10929999999999998     NaN                      -3.3325554461355325E-6   2.3961267580858867E-6    -1.4131689727189493E-5
-0.05146415512499998      0.125                    -0.10929999999999998     NaN                      -7.821496330714692E-6    3.6072672056346323E-6    -2.370125649635983E-5
-0.051464155124999925     0.125                    -0.11170017057796919     NaN                      -8.719662595129289E-6    1.8155014348232283E-5    -4.297757383744875E-5
-0.0514641551249999       0.125                    -0.11338333333333342     NaN                      -1.297766729667064E-5    2.3425035756782626E-5    -5.2934975854544665E-5
-0.04579405004908804      0.125                    -0.11170017057796913     NaN                      -5.14027753737156E-4     3.6720501420511707E-4    -7.929682028254731E-4
-0.04744907756249994      0.125                    -0.11170017057796926     NaN                      -9.864241615296987E-5    8.756984310012879E-5     -2.1813725424349423E-4
-0.04744907756250001      0.125                    -0.10929999999999998     NaN                      -9.29970989270162E-5     3.908260903115966E-5     -1.3102805043240502E-4
-0.045794050049088        0.125                    -0.10929999999999998     NaN                      -5.059035135743441E-4    3.1831318405275895E-4    -7.030689837473799E-4
-0.043433999999999987     0.125                    -0.10929999999999998     NaN                      -9.611955940946979E-4    4.873048559119558E-4     -0.0010874058735161134
-0.04343399999999993      0.125                    -0.11170017057796912     NaN                      -9.462382551399364E-4    6.173546148768737E-4     -0.0014310756600586308
-0.04980912761158799      0.125                    -0.1133833333333334      NaN                      -8.45477668198853E-5     4.511753294203486E-5     -1.2282975048530018E-4
-0.049809127611588164     0.125                    -0.11170017057796928     NaN                      -4.712641835370714E-5    3.7552000255032685E-5    -9.818843568237175E-5
-0.049809127611588226     0.125                    -0.10929999999999998     NaN                      -4.5911402955159665E-5   2.2899441258773287E-5    -7.847490419879835E-5
-0.0578392827365881       0.125                    -0.10929999999999998     NaN                      1.4202235311241595E-7    2.097896325378538E-6     -5.9656491117940596E-6
-0.05783928273658812      0.125                    -0.10758373608469732     NaN                      -8.69741482182137E-8     3.1630709504984502E-6    -7.494316686759298E-6
-0.05949431024999997      0.125                    -0.10929999999999997     NaN                      -3.140656110463406E-20   2.2635562830438036E-6    -5.724939923960327E-6
-0.05949431024999993      0.125                    -0.1075837360846973      NaN                      -7.43988443680001E-20    2.963315274590804E-6     -6.993065061857685E-6
-0.059494310249999904     0.125                    -0.10513636363636368     NaN                      -5.0268300538455545E-20  1.5449028351485694E-6    -6.4730179915350625E-6
-0.057839282736588095     0.125                    -0.1051363636363637      NaN                      -1.8388840050712956E-7   1.7829884387148366E-6    -6.963720445545289E-6
-0.05547923268749989      0.125                    -0.1051363636363637      NaN                      -3.7941565572024594E-7   1.003932032718304E-6     -6.6097813357475874E-6
-0.055479232687499935     0.125                    -0.10758373608469732     NaN                      9.679010918065388E-7     3.1786718194223367E-6    -8.722178696984307E-6
-0.05547923268749996      0.125                    -0.10929999999999998     NaN                      1.2095382127120046E-6    2.1448591043472584E-6    -7.244501790736393E-6
-0.05382420517408812      0.125                    -0.10929999999999998     NaN                      -2.8307988242229226E-6   2.6025577997412366E-6    -1.1922730181262253E-5
-0.05382420517408813      0.125                    -0.10758373608469733     NaN                      3.7882103154383817E-7    4.199776356981561E-6     -1.2667356227815918E-5
-0.05382420517408809      0.125                    -0.1051363636363637      NaN                      -9.590009438347831E-7    1.825340959446085E-6     -1.042817995625836E-5
-0.0514641551249999       0.125                    -0.1051363636363637      NaN                      -6.0192177774871154E-6   2.061821845135562E-6     -1.2440673185148433E-5
-0.051464155124999945     0.125                    -0.10758373608469733     NaN                      -3.4649839223489274E-6   4.5548651781212645E-6    -2.0100078159508817E-5
-0.05146415512499998      0.125                    -0.10929999999999998     NaN                      -6.534126724028784E-6    2.899290280830326E-6     -1.9606731853035742E-5
-0.045794050049088        0.125                    -0.10929999999999998     NaN                      -4.791301289482559E-4    3.151274806320837E-4     -6.406698047091102E-4
-0.045794050049088035     0.125                    -0.10758373608469723     NaN                      -2.153965668423185E-4    2.966402810170044E-4     -5.737639676280746E-4
-0.04744907756250001      0.125                    -0.10929999999999998     NaN                      -8.73390543371609E-5     3.320007268510324E-5     -1.0959524841810665E-4
-0.04744907756249997      0.125                    -0.10758373608469722     NaN                      -5.2858184922228444E-5   3.2310895290049854E-5    -9.400143073521887E-5
-0.0474490775624999       0.125                    -0.10513636363636372     NaN                      -4.978085391078834E-5    3.340744208153535E-5     -5.882218426217066E-5
-0.045794050049088104     0.125                    -0.10513636363636372     NaN                      -2.0203816656067983E-4   2.86569223592673E-4      -5.135989373420872E-4
-0.043433999999999896     0.125                    -0.10513636363636372     NaN                      -6.211208555413981E-4    4.399055092285161E-4     -6.915449609808221E-4
-0.04343399999999995      0.125                    -0.10758373608469735     NaN                      -6.845587081688976E-4    4.5489179419166807E-4    -9.144459812169459E-4
-0.043433999999999987     0.125                    -0.10929999999999998     NaN                      -9.482922702748029E-4    4.7337899380674154E-4    -9.81351818297967E-4
-0.049809127611588226     0.125                    -0.10929999999999998     NaN                      -4.2091651894239816E-5   2.0451700854688014E-5    -6.661545920348058E-5
-0.049809127611588136     0.125                    -0.10758373608469735     NaN                      -8.090924235997599E-6    1.8174879776766875E-5    -5.185313880507469E-5
-0.049809127611588094     0.125                    -0.10513636363636371     NaN                      -9.93964049776886E-6     1.3644030863692312E-5    -4.210645262800958E-5
-0.057839282736588046     0.125                    -0.0676636363636362      NaN                      1.6563771703189595E-7    9.872318276131334E-6     -1.058348182983077E-5
-0.05783928273658802      0.125                    -0.0659473724483335      NaN                      -3.960818347263131E-6    1.0964993977977924E-5    -9.63568967500707E-6
-0.059494310249999904     0.125                    -0.0676636363636362      NaN                      -8.369338736609457E-21   5.662679891373351E-6     -9.840059702510894E-6
-0.059494310249999904     0.125                    -0.0659473724483335      NaN                      1.9974110034919907E-20   9.527459916553665E-6     -9.762487247387156E-6
-0.059494310249999904     0.125                    -0.0635                  NaN                      0                        1.3502816071885402E-5    -1.1126975863217899E-5
-0.05783928273658803      0.125                    -0.0635                  NaN                      -3.960818347263113E-6    1.4940350133309649E-5    -1.1000178290837812E-5
-0.0554792326874999       0.125                    -0.0635                  NaN                      -9.522049536275433E-6    2.0551356206165306E-5    -1.2603792614353648E-5
-0.055479232687499894     0.125                    -0.0659473724483335      NaN                      -1.462761158828365E-6    1.3989378745126019E-5    -9.674130536894058E-6
-0.055479232687499894     0.125                    -0.06766363636363623     NaN                      3.1652073803473427E-6    1.2284991198247349E-5    -1.0607250461020039E-5
-0.05382420517408802      0.125                    -0.06766363636363622     NaN                      1.3124866988917084E-6    2.4449399968831332E-5    -1.578378336343203E-5